# Edges conflicts graph.
TITLE="Edges conflicts graph"
VARIABLES="X", "Y", "Z", "C"
ZONE T="Edges conflicts graph"
NODES=7431
ELEMENTS=14820
DATAPACKING=BLOCK
ZONETYPE=FETRIANGLE
-0.08813016500000001 -0.08802648 -0.089594705 -0.086139445 -0.086711705 -0.08648364 -0.026843449999999998 -0.026077515 -0.026617244999999998 -0.07243050000000001 -0.0702577 -0.06991098 -0.028605079999999998 -0.027223665 -0.029977435 -0.05890168 -0.060641815 -0.058641135 -0.004940875 -0.00260393 -0.0057471250000000005 -0.056319205 -0.055232485 -0.0555409 -0.084300235 -0.08497060000000001 -0.085534255 -0.06900780000000001 -0.067651655 -0.068056855 -0.08921245 -0.089105635 -0.089505525 0.057892555 0.058416184999999995 0.057868779999999995 -0.036596975 -0.034600185 -0.03752311 -0.008536475 -0.00619953 -0.08249700500000001 -0.08249895500000001 -0.08373853 -0.07155944 -0.069899085 -0.071098805 -0.06441730500000001 -0.06359202 -0.064133675 -0.06545883999999999 -0.064148665 -0.065236475 -0.0492796 -0.051093505 -0.049685905 -0.069451775 -0.069171755 -0.07063974 -0.06747205 -0.066895945 -0.06855989500000001 -0.070118075 -0.068252375 -0.06899786 -0.07104551 -0.07270586500000001 -0.03123837 -0.028775625 -0.030585675 -0.07183946 -0.01766886 -0.01572921 -0.018170989999999998 -0.091769455 -0.092611075 -0.091391 -0.010655089999999999 -0.005461855 -0.008300635 -0.07067354 -0.06987900999999999 -0.06959072 -0.092225825 -0.09210718500000001 -0.09261786999999999 -0.08518496 -0.08459965 -0.0854492 -0.008168715 -0.006921945 -0.00435417 -0.01211518 -0.037515135 -0.03648956 -0.036588245 -0.029371015 -0.077847585 -0.07517594999999999 -0.076368325 -0.06940882500000001 -0.06766807 -0.069131535 -0.088362015 -0.08818743500000001 -0.08723048 -0.005431715 -0.00307726 -0.08582996 -0.08744933499999999 -0.084918355 0.001414515 0.000930665 0.00356405 -0.06784132500000001 -0.066177375 -0.080268315 -0.078022135 -0.07925049 -0.09364333999999999 -0.09378918 -0.09313537 -0.0016039850000000003 -0.00035721500000000014 0.0002976449999999999 -0.0036993100000000004 -0.07344269 -0.07309597000000001 -0.024881605 -0.021785065 -0.02320718 -0.083900945 -0.08149166 -0.084128445 -0.00106952 0.00227246 0.00023457999999999986 -0.08296404 -0.081909485 -0.08268202499999999 -0.06717437500000001 -0.066087775 -0.06604556 -0.0636198 -0.0645607 -0.0648672 -0.065220275 -0.08937776 -0.0887242 -0.08809262 0.003739765 0.005043865 0.013291845 0.010906144999999999 0.01284998 -0.069901885 -0.07058176499999999 -0.07154344 -0.08144245 -0.01210798 -0.009927545 -0.013046644999999999 -0.07335596999999999 -0.07298569999999999 -0.07411835 -0.00087601 0.000468985 -0.002898945 -0.08906338 -0.08876176499999999 -0.089193875 -0.07408250499999999 -0.07402921 -0.089513575 -0.089531545 -0.0905759 -0.0040702049999999995 -0.003077945 -0.0055942 -0.05048027 -0.05156922 -0.05133122 -0.06829459 -0.09371001500000001 -0.093410345 -0.09394388000000001 -0.07995215 -0.08117799 -0.08022963 -0.07803022500000001 -0.079256065 -0.078417825 -0.08061723 -0.072803515 -0.07091493 -0.072270115 -0.081117305 -0.08111534 -0.078933665 -0.04877674 -0.05104097 -0.04957544 -0.05585949 -0.056637795 -0.09143143000000001 -0.09141346 -0.068036185 -0.07949099 -0.07854263 -0.07784627 -0.079690715 -0.079100525 -0.05810162 -0.058340235 -0.059814235 -0.073473325 -0.07484996499999999 -0.031195385 -0.028844929999999998 -0.028822435 -0.09015134 -0.09078291999999999 -0.053948795 -0.051928615 -0.05304568 -0.06725800500000001 -0.06619365499999999 -0.06953078 -0.05707874 -0.055557655 -0.056163445 -0.07736100500000001 -0.076899845 -0.07638744 -0.07720983000000001 -0.077881095 -0.07910772499999999 0.042476824999999996 0.042316445 0.041278499999999996 -0.08619252999999999 -0.08647842 -0.08649050999999999 -0.024583965 -0.019577475 -0.01850036 -0.089553915 -0.089349295 -0.08929087 -0.09433878500000001 -0.09383081500000001 -0.06579458499999999 -0.0638827 0.005065975 0.006824775 0.00415177 -0.07651993 -0.075644975 -0.076235165 -0.075008535 -0.05140207 -0.051700474999999996 -0.050588905 -0.013548774999999999 -0.071579375 -0.069059855 -0.057793205 0.005998825 0.008080035000000001 0.00565777 -0.0054152 -0.07522296 -0.07732365 -0.07598078 -0.074192055 -0.074861275 -0.07576424500000001 -0.075227515 -0.013961620000000001 -0.0120906 -0.01122797 -0.038465355 -0.03751923 -0.036046625 -0.08497255000000001 -0.08496046 -0.092756915 -0.09194421 -0.09117063 -0.08748059 -0.087596985 -0.086678335 -0.038480015 -0.036799504999999996 -0.036943069999999995 -0.034507090000000004 -0.032653145 -0.034902365000000005 -0.07478349000000001 -0.07344062 -0.07356886 -0.07625828500000001 -0.073913775 -0.07491157000000001 -0.08830055 -0.08852537499999999 -0.089784515 -0.08874508 -0.08858885 -0.08924248000000001 -0.06312021 -0.061307325 -0.063343265 -0.07235574 -0.074799155 -0.073274805 -0.07174864 -0.073559395 -0.07431508 -0.07330046500000001 -0.07357607 -0.073949685 -0.072627535 -0.0615435 -0.06126742 -0.061241500000000004 -0.00382706 -0.00661641 -0.088175715 -0.08794822499999999 -0.08885876000000001 -0.02721801 -0.029757884999999998 -0.025995715 -0.07334041499999999 0.04213696 0.043116644999999995 0.042238515000000004 0.051586145 0.050875965 0.05214398 -0.032525305 -0.03130301 -0.007555075 -0.06465684 -0.064296875 -0.063256775 -0.07191627 0.005209985 0.002287885 0.00373115 0.048129975000000005 0.04868781 0.04198478 0.043048625 0.041815205 0.052434 0.053702015 -0.051781775 -0.051869085 -0.05045207 -0.01350479 -0.00941028 -0.012178580000000001 0.0009127450000000001 0.00010649500000000007 -0.06991272 -0.071404335 -0.071948545 -0.071556975 -0.07118336 -0.070472095 0.001721495 0.002502905 0.00284709 -0.070673865 -0.07136732 0.0461474 0.04813447999999999 0.0447062 0.05592817 0.05598581 0.057364109999999996 0.045235705 0.045606469999999996 0.045881955 -0.05771027 -0.06059672 -0.05823922 -0.0853553 -0.084943075 -0.083901935 -0.087418365 -0.0871903 -0.0761417 -0.074822685 -0.075849375 -0.068844455 -0.068300245 -0.069073985 -0.07129943999999999 -0.069916495 -0.06853672499999999 -0.07076218000000001 -0.0039324849999999995 -0.006121615 -0.00343304 0.01141099 0.00945903 0.011462420000000001 0.00456218 0.004855645 0.0029579849999999998 -0.069488255 -0.06825723 -0.069600365 0.046543595 0.04655767500000001 0.0462668 -0.09107947 -0.09109953500000001 -0.090356975 -0.08757391 -0.086085845 -0.087097815 -0.00191438 9.336000000000001e-05 -0.00103938 0.003403755 0.00138082 -0.066337805 -0.06772075 -0.06500761499999999 -0.063900735 -0.06417677 -0.000128325 -0.003312135 -0.00381745 0.006692085 0.005413015 0.00476213 -0.048885535 -0.04910804 -0.048246125 -0.09426743 -0.094309065 -0.04711912 -0.046826065 -0.044048775 0.04492583 0.04379845 0.04400643 -0.09424062999999999 -0.094311985 0.045526175 0.045318195000000006 -0.083527695 -0.022980975 -0.019915389999999998 -0.013831785 -0.0875303 -0.08723232 0.0074661300000000005 0.009415264999999999 0.010370225 -0.066108275 -0.01654504 -0.01787223 -0.01948709 0.00585044 0.00506903 0.00760471 0.00480009 0.00318161 0.0026762950000000004 0.007076839999999999 0.00265374 0.060308020000000004 0.060428745 0.059957965 0.054903885 0.056339824999999996 -0.06432492000000001 -0.063173125 -0.06309772500000001 0.05405603 0.05334585 0.002056445 -0.068092585 -0.06693739 -0.066747575 -0.068825455 -0.06775719 0.01874503 0.015918885 0.017831115 0.00645771 0.004153405000000001 0.007103295000000001 0.00650672 0.0057218849999999995 0.004413335 -0.06818862 -0.06719628 -0.06668413000000001 0.044417475 0.044582015 0.044795680000000004 0.043155360000000004 0.043533564999999996 -0.023483169999999998 -0.01988997 -0.01986629 -0.01712167 -0.028537504999999998 -0.029077235 0.016499025 0.01647018 0.019291595 -0.06446598 -0.0672155 -0.06774167 -0.0674647 -0.06892001 -0.06644746 -0.065292265 -0.066155225 -0.064810215 -0.065630015 -0.06450631000000001 0.007154725000000001 0.004423445 0.00677918 0.044112285 0.044442175 0.04529011 -0.00064752 -0.00237425 -0.0025815300000000003 0.00739798 0.00842226 0.00616932 0.007943825 0.005944845 0.0048807799999999995 0.0066321850000000005 -0.02826063 -0.027645285 -0.030966765 -0.03106507 -0.0025324849999999997 -0.0023746649999999998 -0.004466909999999999 0.005829005 0.00422481 -0.027219 -0.027250395 -0.030103005 -0.05117293 -0.052675484999999994 -0.052961104999999994 -0.045886995 -0.046495575 -0.047157069999999995 -0.08146985000000001 -0.0830869 -0.08085455 -0.063186525 -0.063712695 -0.06380363 -0.064103745 -0.062021665000000004 -0.061543405 0.043550455 0.04552565 0.045760555 -0.01703241 -0.016652180000000003 -0.014275719999999999 -0.000969395 -0.0029038199999999997 -0.06317275 -0.062020955 0.033698914999999996 0.035788440000000005 0.035463435 -0.062072595 -0.06285476000000001 -0.061366125 -0.062818525 -0.05985562 -0.06221744 -0.064383485 0.03824502 0.037006325 0.036754085 0.0070293050000000004 0.004025955 -0.054629245 -0.054706964999999996 -0.053121070000000006 -0.09001511000000001 -0.090672415 -0.090138145 -0.09123716 -0.09039554 -0.023196929999999998 -0.024569285 0.027232359999999997 0.023824935 0.025600345 -0.06082342 -0.06338515 -0.062082460000000006 -0.059394665 -0.061430985 -0.06190349 -0.061150205 -0.06096592 -0.062245375 -0.061056855 -0.05924799 -0.060806245 -0.05958795 0.00629533 0.00743068 0.00968362 0.045936359999999996 -0.060882069999999996 -0.05931711 0.0055742050000000005 0.008524095 -0.021041325 -0.067307035 -0.068114185 -0.06687733000000001 -0.060147595 -0.058864559999999996 -0.058680275000000004 -0.05955726 -0.058370435 -0.057841245 -0.061489175 -0.058588845 0.0005673350000000001 0.00091152 0.001131955 -0.0001686000000000001 -0.002544465 -0.07471515000000001 -0.07398147999999999 -0.07384388 0.04147443 0.040499629999999995 0.039661100000000005 0.006983955 0.004698315 -0.06711863500000001 -0.06620076 -0.06755275499999999 -0.0573965 -0.058214825 0.008307970000000001 0.00992645 -0.04713204 -0.04551951 -0.04610197 -0.06902193000000001 -0.070663485 -0.031361475 -0.031655255 -0.05823123 -0.05241965 -0.056562760000000004 -0.05705568 -0.058961070000000004 -0.05701677 -0.057310555 -0.057870435 -0.05798073 -0.05718387 -0.05664536 0.0064946050000000005 0.0047431999999999995 0.00476819 0.0027138 0.0032304 -0.062170920000000005 -0.06270112 -0.06252644 0.014405575 0.013491659999999999 -0.0014635100000000001 -0.003496735 -0.0022758649999999997 0.00411262 0.00274483 0.0037772500000000002 -0.0703269 -0.070230605 -0.069509295 -0.06541857000000001 -0.06440694500000001 -0.062909255 -0.05708025 -0.057552755 -0.056550144999999996 -0.05612373 -0.056489315 -0.055152935 0.0009048600000000001 -0.0008218700000000002 -0.001081 -0.003022375 -0.003999225 0.06066195 0.06034425 0.06041127 -0.0008705949999999999 -0.054851529999999996 -0.054991305 -0.057040775 -0.033611125000000006 -0.03390546 -0.031064515 -0.06510795 -0.06307201 -0.06701262999999999 -0.06575381999999999 -0.06695575 -0.056938465 -0.054994165 -0.054555889999999996 -0.05646128 -0.05461937 -0.05442752 -0.055739325000000006 -0.055273875 -0.05627739 -0.057561165 -0.05580897 -0.057026485 -0.055151595 -0.056091555 -0.05669866 0.0014056049999999999 0.001198325 0.04397492 0.04320618 0.04154422 0.021040475000000003 0.019207555 0.018806370000000003 -0.052762254999999994 -0.054811725 0.039984365 0.039162564999999996 0.036427810000000005 -0.0577777 -0.056037565 -0.062738585 -0.061042435 -0.06407049000000001 -0.05356086 -0.05411635 -0.054279685 -0.054933344999999995 -0.054779684999999995 -0.00524403 -0.006056385 0.01510822 0.013365044999999999 0.015230275000000001 0.015159949999999998 0.012732725 0.046135065 0.04424826 0.044199765 0.02118342 0.019397305 0.019655545 0.04450118 0.044554835 0.042969445 0.045902899999999996 0.044317510000000004 0.05494797 0.054859265000000004 0.056819275 0.020488205000000002 0.018575975 -0.03916873 -0.04153386 -0.03978535 -0.04937303 -0.047711105000000004 -0.049318484999999995 -0.01057523 -0.01025921 -0.01230361 -0.030061915 -0.029349845 -0.03046082 -0.05201371 -0.05263268 -0.05182186 -0.05327617 -0.052418334999999996 -0.05426238 -0.05344762 -0.05194869 -0.05349528 -0.053652665 -0.05287314 -0.054365565 -0.05027341 -0.05247538 -0.0519994 0.040906405 0.040654165 -0.002931435 -0.005376215 -0.00255767 0.01989523 0.01763424 0.01739818 -0.00421866 -0.00165901 0.01742144 0.038197640000000005 0.03662133 0.03560023 -0.05292856 -0.05193353 -0.05340234 -0.053246295 -0.051122545 0.011569010000000001 0.010814635 0.00346579 0.00415313 0.01197267 0.012360645 0.009328345 0.0017775400000000002 -0.050921095 -0.051204985 -0.04947053 -0.050386379999999995 -0.05157417 -0.051308770000000004 -0.04951393 -0.051653935 -0.051994465000000004 -0.05035503 -0.050872335000000005 -0.051746025 0.01507108 0.01399315 0.01405926 0.05608294 0.057164864999999995 -0.000683185 0.0023382650000000004 0.0024713649999999997 -0.000484595 0.00081076 -0.062030459999999996 -0.06208719 -0.06222179 -0.04957349 -0.051341395 -0.050954545 0.059606735 0.058756155000000004 0.059242989999999995 -0.06830915500000001 -0.067109645 -0.06766737 -0.049686535 -0.04959063 -0.050341515 -0.04996836 -0.000668075 0.039730890000000005 0.038145435000000005 0.037100845 0.03938413 0.04614902 0.044988355 0.044476215 0.047198455 0.04591022 -0.078157205 -0.07632599 -0.077100485 0.002984765 -0.051944725 -0.052132239999999996 -0.050083925 -0.07227787999999999 -0.07201893 -0.07175708 -0.05025951 -0.05030717 -0.04810421 -0.04979339 -0.04838888 -0.049543065 0.0007160199999999999 0.03666785 0.033636219999999994 0.03546563 -0.002872315 -0.00342052 -0.000670665 -0.00399799 -0.005687955 -0.004683495 0.010847335 -0.005030655 -0.00926253 -0.010749295 -0.04856668 -0.04828279 -0.048542749999999996 -0.0482203 -0.050076869999999996 -0.04907378 -0.04844888 -0.05012084 -0.048714419999999994 -0.048904935 -0.04871351 -0.049123150000000004 -0.04834212 -0.047882085 -0.048358065 -0.06461738 -0.06340602000000001 -0.06496676 0.002146055 0.005068155 -0.045725345 -0.046913085 -0.045378965 -0.0068425050000000005 -0.04770174 -0.046389139999999995 -0.04734096 -0.047854049999999995 -0.04666179 -0.044963055 -0.047110294999999996 -0.04656627 -0.09117030500000001 -0.09162403499999999 -0.09130387 0.009865215 0.007543475 -0.047779815 -0.045515585 -0.04727536 -0.046888509999999994 -0.008726335 -0.045528769999999996 -0.045057605 -0.046717485 -0.04662158 -0.044922845 -0.04605249 -0.04754367 -0.047824494999999995 -0.04940875 -0.047435815 -0.01067062 -0.011634375 -0.011208225 0.0021392050000000004 0.000601415 0.0019627200000000003 -0.06843033000000001 -0.06806332500000001 -0.067080655 -0.0484479 -0.046982369999999996 -0.088858465 -0.0893958 -0.088048545 -0.044138424999999995 -0.04598466 -0.045532705 -0.04387911 -0.06943197000000001 -0.068971335 0.032297525 0.033806420000000004 0.032239455 -0.045022535 -0.046195635 -0.04622872 -0.04521604 -0.044252715 -0.045790655 -0.045870075 -0.045916835 -0.04510499 -0.046731825000000005 -0.04438298 -0.046355915 -0.016857205 -0.01777105 -0.014809335 -0.02983423 -0.027857615000000002 -0.026242204999999998 -0.044512595 -0.045977435 -0.045188690000000004 0.01756813 -0.087770455 -0.087116895 -0.04386484 -0.043897925 -0.04411706 -0.04372896 -0.045644304999999996 -0.040916640000000004 -0.045069765 -0.04162825 -0.048945619999999995 -0.050265439999999995 -0.04978845 0.052894905 0.04984062 0.049747564999999994 0.047073445 0.047346785 -0.09052793 -0.08971801 0.00476687 -0.04426445 -0.045769515 -0.043484385 -0.042359775 -0.042368174999999994 -0.043525869999999994 -0.04368629 -0.043283890000000005 -0.04414564 -0.041907860000000005 -0.06672418499999999 -0.064963885 -0.06599113000000001 0.006123725 0.00360409 0.002773325 -0.042613780000000004 -0.04551753 -0.044407459999999996 -0.042611835 -0.050528014999999996 -0.05022961 -0.041929215 -0.043184274999999994 -0.04323438 -0.043716425 -0.042026255 -0.043868735 -0.04324526 -0.043733974999999994 -0.042725855 -0.042852035 -0.041892685 -0.092390045 -0.09250868500000001 -0.06341287 -0.062185675 0.0016509750000000003 -0.00046141 0.0020977 0.0007299100000000001 -0.002748145 7.04e-05 -0.04291763 -0.042465674999999994 -0.039082745 -0.040429505 -0.040532349999999995 -0.040582455 -0.040748485 -0.04112894 -0.04175861 -0.04328547 -0.042987689999999995 -0.062189905000000004 -0.061950160000000004 -0.061606935 -0.061123475 -0.059897809999999996 -0.006645885 -0.00585142 -0.008599155 0.01096085 -0.040089315 -0.04131011 -0.041502750000000005 -0.04001161 -0.04110793 -0.042975429999999995 -0.038763245 -0.04016011 -0.04067703 -0.040707165000000003 -0.03939413 -0.040743354999999995 -0.040445575 -0.04059954 -0.041031395 -0.049043125 -0.048548995 -0.048928479999999996 0.033974695 -0.009732919999999999 -0.0093838 -0.01013369 -0.03417544 -0.033226455 -0.030409145 -0.03853893 -0.039318865 -0.03808803 -0.040756885 -0.039437795 -0.038879849999999994 -0.037864595 -0.03801856 -0.0393586 -0.040651745 -0.037216324999999995 -0.03888912 -0.03847244 -0.03977069 -0.03919615 -0.038480765 -0.039611864999999996 -0.041783299999999995 -0.08607739 -0.08710261 -0.08785016000000001 -0.00155321 -0.039329785 -0.041152999999999995 -0.039680494999999996 -0.04049894 -0.0375676 -0.04078862 -0.001582485 -0.0048125649999999996 -0.00319916 -0.039056715000000006 -0.04021228 -0.038562004999999996 -0.037499655 0.060168405 0.059544824999999996 0.060155219999999995 -0.03889927 -0.037426765 -0.03720196 -0.036779615 -0.038011555 -0.0379317 -0.03662517 -0.03805141 -0.0380876 -0.036744895 -0.038087615 -0.036193575 -0.03753628 -0.035970555 -0.03783487000000001 -0.03611518 -0.03607856 -0.037981940000000006 -0.03760229 -0.035839665 -0.03675195 -4.552e-05 -0.00148584 0.04214653 0.043213395 0.042480875 0.02108052 0.021303870000000003 0.02019147 -0.08857271 -0.035227234999999996 -0.037147695 -0.036223649999999996 -0.036682839999999994 -0.036264945 -0.036817125 -0.03671428 -0.034833495 -0.036581935 -0.03478481 -0.034861285000000006 -0.03380747 -0.034193435 -0.038325714999999996 -0.037179765000000004 -0.00034144 0.01139168 0.009094665 0.010684315 -0.001613035 -0.003120725 -0.036821745 -0.038724764999999994 -0.037542515 -0.034344484999999994 -0.03593837 -0.03588376 -0.035764050000000006 -0.034901669999999996 -0.034901685 -0.03499191 -0.034440575 -0.03490385 -0.03475678 -0.035881515 -0.00481069 0.00858655 -0.035694745 -0.037137085 -0.03583558 -0.032232424999999995 -0.031785265 -0.02962445 -0.054346025 -0.053888615 -0.054911589999999996 -0.03441722 -0.03356927 -0.033954105 -0.0348749 -0.033154249999999996 -0.03413349 -0.03404055 -0.033148685 -0.005044015 -0.007365715 -0.00354057 0.011446955 -0.0331514 -0.03253695 -0.033738615 -0.032871655 -0.033539755000000004 -0.03311194 0.00303606 0.00175699 0.0051369 -0.0030702150000000003 -0.00675934 -0.004794705 -0.004848585 -0.00749809 -0.06670718 0.011376725 0.00835203 0.010218294999999999 0.003057545 -0.0004591300000000001 -0.03250031 -0.032459015 -0.032360575 -0.032329134999999995 -0.03287702 -0.034141245 -0.03053834 -0.032441965 -0.03277028 -0.033399545 -0.033583234999999996 -0.07219331 -0.071565905 -0.071675615 -0.092364685 -0.092821925 -0.09227927 -0.031481184999999995 -0.032022495 -0.031932405 -0.031929555 -0.030054644999999998 -0.030009389999999997 -0.032541335000000005 -0.031366624999999995 0.05136365 0.050418649999999995 0.04945501 0.021017965 0.021907015000000002 -0.088841455 -0.088187825 -0.030443665 -0.029758965 -0.03096766 -0.031154800000000003 -0.02925051 -0.03115987 -0.030028115 -0.03039133 -0.031520235 -0.02961196 -0.03161046 -0.031240410000000003 -0.03053845 -0.029604835 -0.028746624999999998 -0.03065621 -0.03146571 0.045158015 0.045116885 0.04467672 0.03488676 0.033346064999999994 0.001379995 -4.115e-05 0.001316995 -0.00523304 -0.005370715 -0.006758735 -0.030887225 -0.031296685 -0.029586750000000002 -0.02746721 -0.028760245 -0.028688975 -0.0292418 0.058651325000000004 0.05896557 0.058058885000000005 0.00034014500000000003 0.0093712 -0.089048815 -0.088252625 0.009256795 0.00834259 -0.029136925 -0.0293081 -0.0280278 -0.02933454 -0.0286234 0.012998485 0.015791055 -0.08341325499999999 -0.081380415 -0.08329700000000001 -0.02879188 0.04072682 0.03933877 0.038806759999999996 0.008478349999999999 0.01053037 0.00809322 0.002590035 0.002040275 -0.0030216749999999997 -0.00572506 -0.019613895 -0.019343285 0.046316275000000004 0.045946829999999994 0.045911435 -0.06563239500000001 -0.06487137500000001 -0.06403591 -0.028781475 -0.02709449 -0.028155925 -0.027523835 -0.028145875 -0.028150945 -0.02738688 -0.026982325 -0.028531415 -0.027026385 -0.02538545 -0.027510245 -0.027835885 0.00019117500000000003 -0.0011695899999999999 -0.000512585 0.00199689 -0.000401105 -0.06684578499999999 -0.06679758499999999 0.013328685 -0.0003093500000000001 -0.06257997 -0.062939935 -0.026934220000000002 -0.02696066 -0.02471601 -0.02619973 -0.02556259 -0.09292205 -0.09244752 -0.09271529 0.002243625 -0.0007615149999999999 0.03753567 0.038510470000000005 -0.02790156 -0.02790167 -0.02745175 -0.023014185 -0.023498045000000002 -0.027850005 -0.02491571 -0.026762925 -0.0296831 0.017063195 0.016903125 0.02047922 0.004525755 0.00328774 -0.008472795 -0.025234655 -0.024609105 -0.052803585 -0.052713430000000006 -0.049986565 -0.047209274999999995 0.047739645 0.047923315 0.00558518 0.006497015 0.01222611 0.014738675 0.013287175 -0.026361000000000002 -0.025470680000000002 -0.025001255 -0.025745945 -0.02273619 0.00754341 0.00711258 0.0023789650000000002 0.0024777650000000003 -0.00119342 0.0001435850000000001 -0.00154273 0.001459105 0.0065959799999999996 -0.024480445 -0.024481965 -0.02647046 -0.022849335 -0.025334719999999998 -0.0238685 -0.02625382 -0.068244005 -0.0658152 -0.06482286000000001 -0.024369775 -0.02424641 0.059697625000000004 -0.017097225 -0.016346895 -0.01497285 -0.02677184 -0.026770955 -0.024365505000000003 -0.02541626 -0.025287425 -0.024235785 -0.024334725 -0.02632474 -0.022179459999999998 -0.024022235 -0.024417365 -0.02242887 -0.02255753 -0.01531646 -0.01355653 -0.01335965 0.01104935 0.010708295 -0.088380775 -0.08851127 -0.08688628500000001 -0.03328297 -0.03582958 -0.01679691 -0.01782694 -0.01624072 -0.023992275 -0.022616104999999997 0.009454195 0.00825255 -0.001676035 -0.00459426 0.002107645 -0.068725915 -0.06740424 -0.062396335 -0.062079495 0.005178395000000001 -0.05222169 -0.051614395 -0.051523345 -0.02199851 -0.02289164 -0.021004235000000003 -0.060891985 -0.061655114999999996 -0.062293509999999996 -0.002670545 0.017320225 0.017957345 0.017408140000000003 0.042668029999999996 0.041829500000000006 -0.061124915 -0.022331685 -0.021412584999999998 -0.02318823 -0.020732315 -0.036878205 -0.036939534999999996 -0.03532437 -0.06715615999999999 0.015071504999999999 0.016451595 0.015193869999999998 -0.021544225 -0.021290089999999998 0.050606815 0.049655674999999996 0.049461149999999995 -0.04958503 -0.02001271 -0.01994963 -0.02014137 -0.02131252 -0.091156735 -0.09066096500000001 -0.09050788000000001 -0.0022855099999999997 0.014517285000000001 0.01798898 -0.056206535 -0.058345419999999995 -0.055137605 -0.044299295 -0.04091781 -0.040374234999999994 -0.01913807 -0.020464085 -0.019592355 -0.02272207 -0.02071212 -0.03873686 -0.035444575 -0.037249594999999996 0.007840995 0.006876465 0.00914934 -0.019001025 -0.016521785 -0.017767775 -0.020375675 -0.018938925000000002 -0.018393510000000002 -0.019250055000000002 -0.026277025 -0.026253344999999997 0.010141225 0.007709205 -0.068111965 -0.068295675 -0.06599441 -0.02149715 -0.0207745 -0.01985795 0.04824329 0.048291785000000004 -0.00532005 -0.006844595 -0.005281825 0.016367005 0.014501775 -0.057474664999999994 -0.056526765 -0.0563169 -0.017909325 -0.019578735 -0.01835276 0.00979697 0.007615545 -0.01846422 -0.01954436 -0.018787125000000002 -0.01890967 -0.018617555 0.027993405 0.027568965 0.025897370000000003 -0.007245665 0.00716782 0.005461475 0.004444485 -0.04087672 -0.03887993 -0.017456665 0.006565505 0.0061508050000000005 -0.01739433 -0.018465389999999998 -0.018064240000000002 -0.01918804 -0.016838264999999998 0.01756009 0.04268563 0.020394275 0.00689571 0.004829325000000001 -0.01658022 -0.017625625 -0.017294595 -0.016331385 -0.01760803 -0.016518835 -0.01763163 -0.01596222 -0.017281225 -0.019671765 0.011707124999999999 0.011292425 0.00909314 -0.01246483 -0.01761502 -0.01852127 -0.01661898 -0.015346685 -0.016785635 -0.018153405 -0.01726708 -0.015342084999999998 -0.015111475 -0.018386945000000002 0.042045515000000006 0.004809505 -0.0007934650000000001 -0.01514234 -0.015687755 -0.01545345 -0.01702795 -0.015982545 -0.01530195 -0.015035305 -0.01499411 -0.016083305 -0.014899989999999998 -0.016176634999999998 -0.01490168 -0.016520525 -0.016119375 -0.01596446 -0.014433600000000001 -0.01515473 -0.01481756 -0.016857695 -0.08486064500000001 -0.0846472 -0.082945905 0.01200043 0.014512995 -0.014822965 -0.017040075000000002 -0.01431329 -0.013193425 0.050868545 0.047721205 0.043303245000000004 0.04448107 -0.015632979999999998 -0.01416637 -0.014508569999999998 -0.013825790000000001 -0.01454468 -0.016588755 -0.01347249 0.0006933 -0.014441765 -0.01278346 -0.014552369999999999 -0.0132741 -0.06592399 -0.066365655 -0.06484198499999999 -0.01426049 -0.01282049 -0.01321191 -0.012968225 -0.013312115 -0.011892335 -0.01301606 -0.013999919999999999 -0.014166575 -0.01221421 -0.013394320000000001 -0.014066700000000001 -0.01228099 -0.011630725 0.022448715 0.022212654999999998 -0.011320015 -0.012400625 -0.011217065 -0.01317115 -0.01251446 -0.012028919999999999 -0.01107446 -0.010905024999999999 -0.012250905 -0.01066134 -0.01322746 -0.012419969999999999 -0.01280393 0.045714865 0.0453225 -0.002951435 -0.00489281 -0.00949085 -0.00502912 -0.0012946900000000003 0.00699811 -0.065349345 -0.06375286 -0.009998585 -0.00912511 0.011367045 -0.011639304999999999 -0.012249355 -0.011043214999999999 0.04395559 0.044913395 0.044176005000000004 -0.010226065 -0.00961602 -0.012209765000000001 -0.00851297 -0.011106715 -0.010501115 -0.00941224 -0.010210425 -0.09107998 -0.091400145 -0.011013760000000001 -0.009945425 -0.038305595 -0.036690429999999996 -0.011631595 -0.010041495 -0.01025267 -0.00958029 -0.01071791 -0.01019879 -0.0069367249999999995 -0.004466495 0.00238173 0.008744105 -0.010187345 -0.009597375 -0.054779535000000004 -0.054086425 -0.05586724 -0.012003745 -0.009959345 -0.008016434999999999 -0.00856892 -0.010835375 -0.00959088 -0.008629875 -0.00794231 -0.00865963 -0.00993837 -0.010452045 -0.00968534 -0.0077185050000000005 0.058419055 0.058476694999999995 0.003703235 -0.0074024699999999995 -0.009488685 -0.008328175 -0.009119745 -0.0072193399999999994 -0.00874683 -0.00755957 -0.008917445 -0.008418 -0.009567205 -0.011698745 -0.01373126 -0.00849859 -0.00551559 0.05136979 -0.015245635 -0.007140405 -0.007697245 -0.053518195000000005 -0.055104089999999994 -0.008927185 -0.00689467 0.059105185000000005 0.009083315 -0.007377815 -0.007535635000000001 -0.00657778 -0.0064195450000000005 -0.00764267 -0.006418505 -0.0707483 -0.07034309999999999 -0.00659597 -0.08875678000000001 -0.087799825 0.0121357 0.01489625 0.01198374 -0.00105919 0.00956052 0.00854353 -0.022490665 -0.02249155 0.00928841 -0.044898125 -0.041677105 0.028139805 0.029491675000000002 0.02746279 -0.028364645 -0.02882376 -0.025832665 0.010198595000000001 0.00843293 0.008225505000000001 -0.012392239999999999 -0.01651699 -0.01360279 0.02236544 0.0240959 0.02204961 -0.064106395 0.053521125 0.054329485 0.05313565 0.01764328 0.01562552 0.01609203 0.054197785 0.052626450000000005 0.052372675 0.04027142 0.039077535 0.038713054999999996 0.04463871 0.04398502 0.0448575 -0.040369815 -0.0414092 -0.042284265 0.055382315 0.05563609 0.053137645 0.051312535 -0.036615734999999996 -0.036390345000000004 -0.03384504 0.016738219999999998 0.016629925 0.019312925 -0.04226307 -0.043051815 0.022209680000000002 0.02560216 0.024338685 0.023303585 0.02898059 0.028841755 0.030801605 0.045071164999999996 -0.02630425 -0.024817699999999998 -0.02777833 0.015544905000000001 0.01372055 0.014743945000000001 -0.04995763 -0.0494635 -0.04777238 -0.04917998 -0.07190063499999999 -0.072803605 0.007520275 0.00981729 0.01448 0.01290031 0.01332509 -0.04890928 -0.0502291 -0.025257505 -0.023254135000000002 -0.02493733 -0.07040550500000001 -0.07121322999999999 -0.068952845 -0.070447975 0.035740275 0.03511067 0.037325485 -0.06733438 -0.06722227 -0.056851465000000004 -0.05735239 -0.056568435 0.018363545 0.019906149999999997 0.018116565 0.03168822 0.03143042 0.028992200000000003 0.018489715 0.017054705 0.01633979 -0.02980815 -0.03317099 -0.03371426 -0.066329445 -0.06658240500000001 -0.06912945000000001 -0.021836625 -0.019788754999999998 0.053890535 0.053830565 0.05176376 -0.07921291 -0.07993349 -0.07788897 -0.066558325 -0.067593285 -0.067423735 -0.06823146 0.041775845000000006 0.013133454999999999 0.014713145 -0.032777325 -0.03339267 -0.06674418 -0.06645134 -0.0677972 -0.06610777500000001 -0.06745363500000001 -0.06871852 -0.06940592500000001 -0.03103246 -0.03493857 -0.065252215 -0.06551112 -0.06718941 0.045612105 0.045207264999999996 0.048420405 0.050359755 0.04707637 -0.06490391000000001 -0.064194455 -0.06359780000000001 -0.06427661500000001 -0.06532382 -0.06624667000000001 -0.06552528499999999 0.056065495 0.05717559 0.055561655 0.057250024999999996 0.03703733 0.036722325 0.035656755 0.03903853 0.03777196 0.03802496 0.015855575 -0.03782646 -0.034736710000000004 -0.03613817 -0.06655215 -0.06734355 -0.06829576 -0.06450056 -0.06555358 -0.066063425 -0.06655048499999999 0.059385085 0.060008665 0.056616675000000005 0.05576779 0.055563845 0.03771063 0.036959105000000006 0.036223565 0.02860134 0.0273261 0.0271481 0.05217815 0.054626085000000005 0.05547497 -0.06460136999999999 -0.063296695 -0.06385740000000001 -0.065034465 0.023928025 0.02254317 0.023287244999999998 0.037278704999999995 0.035274215 0.0364091 -0.062858115 -0.06292972 -0.064689215 -0.019372265 -0.02088939 -0.018470515 0.04977974 0.049268545 0.018003619999999998 0.015985859999999998 -0.014052180000000001 -0.013151315 -0.011992804999999999 -0.062250904999999995 -0.063827 -0.065494885 -0.06485595999999999 0.010971045 0.01008754 0.01732423 0.018347625 0.04988929 0.049949259999999995 -0.01557959 -0.017763595 -0.013631435 -0.06465643 -0.06629470500000001 -0.06723821499999999 -0.0637476600000