# Edges conflicts graph.
TITLE="Edges conflicts graph"
VARIABLES="X", "Y", "Z", "C"
ZONE T="Edges conflicts graph"
NODES=20634
ELEMENTS=40341
DATAPACKING=BLOCK
ZONETYPE=FETRIANGLE
-0.0452995840460062 -0.045072540640830994 -0.04511192627251148 -0.0307388212531805 -0.030612637288868427 -0.030447262339293957 -0.05165921151638031 -0.05165044963359833 -0.05173901841044426 -0.01421559322625399 -0.01443445449694991 -0.01447497820481658 -0.04925708286464214 -0.04905836470425129 -0.04909157007932663 -0.05121137015521526 -0.05112539790570736 -0.051085472106933594 -0.01018513273447752 -0.010230343788862228 -0.01043669879436493 -0.050507932901382446 -0.05059382505714893 -0.050656599923968315 -0.01087017171084881 -0.010628527961671356 -0.010570372454822063 -0.019192727282643315 -0.018908554688096046 -0.019032087177038193 -0.01670882757753134 -0.0164570901542902 -0.01653642486780882 -0.04777819290757179 -0.047963883727788925 -0.04790395498275757 -0.04782476834952831 -0.04762009531259537 -0.047705138102173805 -0.01215919340029359 -0.011921861208975315 -0.011930476408451796 -0.03376492112874985 -0.03398216515779495 -0.033606141805648804 -0.035577161237597466 -0.03577559068799019 -0.03543531335890293 -0.04307240806519985 -0.04318678751587868 -0.04332183860242367 -0.03314059041440487 -0.03329389914870262 -0.032986706122756004 -0.03622029162943363 -0.03607782907783985 -0.03638068214058876 -0.03682715259492397 -0.03668012283742428 -0.03696474805474281 -0.01082409918308258 -0.01058595348149538 -0.010603585280478 -0.04296126402914524 -0.04282621294260025 -0.04217165522277355 -0.04246600903570652 -0.04239453375339508 -0.04320239834487438 -0.042910413816571236 -0.042980872094631195 -0.041902825236320496 -0.041974300518631935 -0.04160635732114315 -0.04131213389337063 -0.04141124710440636 -0.04180371202528477 -0.04473511502146721 -0.044450463727116585 -0.04451909475028515 -0.04346606694161892 -0.04339560866355896 -0.04372585006058216 -0.04401343315839767 -0.04394686035811901 -0.04353263974189758 -0.045011572539806366 -0.0449429415166378 -0.04527062736451626 -0.04546861909329891 -0.04541739076375961 -0.045062800869345665 -0.01624378841370344 -0.015957548283040524 -0.016095729544758797 -0.016226762905716896 -0.015940522775053978 -0.0163505245000124 -0.01617812179028988 -0.016505731269717216 -0.019282758235931396 -0.019451159983873367 -0.01959034614264965 -0.019312032498419285 -0.01961962040513754 -0.01917279697954655 -0.01903362013399601 -0.01934131607413292 -0.019004336558282375 -0.019685640931129456 -0.019854042679071426 -0.02854098286479712 -0.02869677916169167 -0.02841208223253489 -0.029889174737036228 -0.030042157508432865 -0.029782241210341454 -0.02639697585254908 -0.026156069710850716 -0.026215351186692715 -0.01812952756881714 -0.018021891824901104 -0.018298250623047355 -0.01831538882106543 -0.018576900474727154 -0.018486402928829193 -0.04310915432870388 -0.043368853628635406 -0.04326019249856472 -0.04246292635798454 -0.042570045217871666 -0.04231790266931057 -0.02999762073159218 -0.02973770443350077 -0.030142051167786125 -0.030293521471321583 -0.029990308918058876 -0.03028620965778828 -0.0464333388954401 -0.046574244275689125 -0.04635622352361679 -0.009760357439517975 -0.009892805479466915 -0.01005470845848322 -0.03093150444328785 -0.031219043768942356 -0.031092518009245396 -0.011223245412111279 -0.01152745587751269 -0.01132429530844092 -0.051110709086060524 -0.051257943734526634 -0.05114195868372917 -0.041208818554878235 -0.04101370833814144 -0.04060126841068268 -0.04085224121809006 -0.04054311662912369 -0.04358077049255371 -0.04339645430445672 -0.043704207986593246 -0.04297522082924843 -0.04319213330745698 -0.04289433732628822 -0.033935705199837685 -0.034068336710333824 -0.03427357599139214 -0.033559681847691536 -0.03324238210916519 -0.03341316618025303 -0.035796044394373894 -0.03595643490552902 -0.035455767065286636 -0.035136548802256584 -0.03535543195903301 -0.01420138543471694 -0.014469892252236605 -0.014345435425639156 -0.043955614790320396 -0.0437712986022234 -0.012241953052580355 -0.01187679311260581 -0.012085176538676025 -0.012674666941165924 -0.01277584070339799 -0.013000171165913345 -0.01977828145027161 -0.020073717460036278 -0.019922243431210518 -0.019615748897194862 -0.019464274868369102 -0.026507580652832985 -0.026215352118015286 -0.02636520005762577 -0.026668003760278225 -0.02681785169988871 -0.03441769815981389 -0.03455032967031003 -0.03493226133286953 -0.034831926226615906 -0.033107539638876915 -0.03296102397143841 -0.009715646971017122 -0.009910379536449906 -0.010016679298132655 -0.05191441997885704 -0.05183638073503972 -0.051856303587555885 -0.025467729195952415 -0.025677245110273365 -0.02535933256149292 -0.02082815766334534 -0.02061709761619568 -0.02093743346631527 -0.04966465383768082 -0.04983998090028763 -0.04988313093781471 -0.045025985687971115 -0.044838327914476395 -0.049758780747652054 -0.049666957929730415 -0.0498382281512022 -0.0496916975826025 -0.04964102804660797 -0.04953684099018574 -0.045533742755651474 -0.04568050615489483 -0.01524667302146554 -0.015403748489916321 -0.01548937289044261 -0.01526493206620216 -0.014978663530200715 -0.015082546975463625 -0.033229900524020195 -0.03295414708554745 -0.03310864791274071 -0.03204423747956753 -0.03190776705741882 -0.03172682784497738 -0.03252928704023361 -0.03239252045750618 -0.03269663080573082 -0.032211581245064735 -0.03425748459994793 -0.034098705276846886 -0.03489888273179531 -0.035131094977259636 -0.035052187740802765 -0.03331145830452442 -0.03349925950169563 -0.0336355846375227 -0.03328201547265053 -0.033004265278577805 -0.03286749869585037 -0.035126108676195145 -0.03532453812658787 -0.03569195605814456 -0.035362761467695236 -0.03557736612856388 -0.03538781404495239 -0.03514132276177406 -0.035230860114097595 -0.04944680631160736 -0.04954697750508785 -0.04961324669420719 -0.03373007848858833 -0.033917879685759544 -0.01621870510280132 -0.01604971755295992 -0.01633331272751093 -0.030038995668292046 -0.0301427710801363 -0.029883937910199165 -0.05137016437947751 -0.05140141397714615 -0.05156808905303478 -0.05168279446661472 -0.051628340035676956 -0.01485166465863585 -0.014669279567897315 -0.01591509208083153 -0.01602165773510933 -0.048522431403398514 -0.048411523923277855 -0.0486325528472662 -0.04806976206600666 -0.048195524141192436 -0.048376938328146935 -0.0482710599899292 -0.0470278337597847 -0.04714388586580753 -0.04690728895366192 -0.047502078115940094 -0.04738244786858559 -0.047177791595458984 -0.04729580879211426 -0.04630826413631439 -0.046215083450078964 -0.046059366315603256 -0.05059080384671688 -0.050607092678546906 -0.05045945383608341 -0.04947763308882713 -0.04928724467754364 -0.04943111538887024 -0.04952078312635422 -0.04954778403043747 -0.049360763281583786 -0.04677663370966911 -0.04691414162516593 -0.04665471985936165 -0.015783220529556274 -0.015897828154265884 -0.01565196271985769 -0.015500073321163654 -0.04874119535088539 -0.04862714931368828 -0.048851244151592255 -0.04309308901429176 -0.04335645213723183 -0.04324208199977875 -0.04284689389169216 -0.04270187020301819 -0.030483233742415905 -0.030328175984323025 -0.030600082129240036 -0.03078548703342676 -0.03134424891322851 -0.03150526247918606 -0.03268320485949516 -0.032836513593792915 -0.03237909451127052 -0.03225098364055157 -0.032097065821290016 -0.0324162095785141 -0.03271801583468914 -0.03253108821809292 -0.04668130725622177 -0.046797359362244606 -0.04884208366274834 -0.04873117618262768 -0.05149685777723789 -0.05137764289975166 -0.05136530287563801 -0.040885694324970245 -0.0406995452940464 -0.04093574732542038 -0.03999556601047516 -0.04009886831045151 -0.03980229049921036 -0.047814274206757545 -0.04769143462181091 -0.047911809757351875 -0.04776144213974476 -0.047885652631521225 -0.04766475968062878 -0.03192014992237091 -0.03201676532626152 -0.03175641968846321 -0.036073844879865646 -0.03593199700117111 -0.036376697942614555 -0.036386389285326004 -0.036523984745144844 -0.03667043149471283 -0.03526707738637924 -0.035420382395386696 -0.01437482796609402 -0.014643334783613685 -0.034497788175940514 -0.03432716242969036 -0.03419731184840202 -0.03470207564532757 -0.03449920192360878 -0.03483333997428417 -0.0338801983743906 -0.0341473538428545 -0.03401517868041992 -0.033597903326153755 -0.03344401903450489 -0.033595263957977295 -0.03329125978052616 -0.05191955715417862 -0.05183488689363003 -0.05185217224061489 -0.0484804455190897 -0.048558322712779045 -0.04834340140223503 -0.04808720946311951 -0.04816508665680885 -0.0478656142950058 -0.048043929040431976 -0.01911523099988699 -0.019277763552963734 -0.027162962593138218 -0.027002539485692978 -0.04200184531509876 -0.04177195578813553 -0.041870566084980965 -0.0418043527752161 -0.04207318276166916 -0.04202619194984436 -0.041729724034667015 -0.041828639805316925 -0.04208811931312084 -0.04196455515921116 -0.0444986242800951 -0.04475484788417816 -0.044686635956168175 -0.04471508786082268 -0.04443766735494137 -0.04458591900765896 -0.040346959605813026 -0.04011884704232216 -0.04013615660369396 -0.040186932310462 -0.040491631254553795 -0.04034891352057457 -0.0407026931643486 -0.04039356857538223 -0.040269603952765465 -0.04057430289685726 -0.040806008502840996 -0.0408853180706501 -0.043334707617759705 -0.043594490736722946 -0.041109491139650345 -0.04140791669487953 -0.04150683246552944 -0.041438814252614975 -0.041240571066737175 -0.041630396619439125 -0.041051339358091354 -0.04098332114517689 -0.04336938634514809 -0.043626703321933746 -0.043529853224754333 -0.0435627568513155 -0.04329908825457096 -0.04125630483031273 -0.0412931963801384 -0.04111064225435257 -0.04220118559896946 -0.0424896702170372 -0.04238894023001194 -0.0416282769292593 -0.04136201553046703 -0.041703103110194206 -0.04191095754504204 -0.04173446260392666 -0.044878629967570305 -0.0451376847922802 -0.04490521550178528 -0.04512085020542145 -0.04507897421717644 -0.045083245262503624 -0.04480678774416447 -0.010163703933358194 -0.010152298491448166 -0.00991085497662425 -0.010385293513536455 -0.010132444556802511 -0.010623439215123655 -0.050788022577762604 -0.050656672567129135 -0.04944194667041302 -0.04940874129533768 -0.030109511688351635 -0.029996272176504135 -0.03026832640171051 -0.01501502702012658 -0.01487790094688535 -0.01468601729720831 -0.015144381206482645 -0.015336264856159684 -0.014996804296970364 -0.01531804213300347 -0.04638466238975525 -0.04625718295574188 -0.0461328849196434 -0.04652629606425762 -0.0466505941003561 -0.046388788148760796 -0.03113721963018179 -0.03127223718911409 -0.03145533986389637 -0.03103000018745661 -0.03084689751267433 -0.03117950074374676 -0.0308891786262393 -0.04906221479177474 -0.04918375425040722 -0.049295445904135704 -0.04895555227994919 -0.0488438606262207 -0.0490695983171463 -0.01516669010743499 -0.015021285507827994 -0.014891305938363075 -0.03179003112018108 -0.03193116374313831 -0.03209072723984718 -0.032121676951646805 -0.03199741989374161 -0.031825337558984756 -0.03166482597589493 -0.03223341703414917 -0.03240549936890603 -0.0323745496571064 -0.01294539729133248 -0.012972637079656124 -0.013214359525591135 -0.014057003892958164 -0.014054444152861835 -0.014323282521218061 -0.051569487899541855 -0.051649294793605804 -0.05165825970470905 -0.051739221438765526 -0.024864486418664455 -0.025011669844388965 -0.02475822251290083 -0.021435555070638657 -0.021287604235112667 -0.02154253702610731 -0.04524883069097996 -0.04501922987401485 -0.04513700678944588 -0.03913908451795578 -0.039312923327088356 -0.03899548761546612 -0.038655493408441544 -0.03882933221757412 -0.03836776502430439 -0.03853392042219639 -0.051889657974243164 -0.051819927990436554 -0.05187378451228142 -0.05184081755578518 -0.05176876299083233 -0.05176374688744545 -0.05151879973709583 -0.051406579092144966 -0.03085397183895111 -0.03101934678852558 -0.03096973802894354 -0.03068921249359846 -0.051461417227983475 -0.05151587165892124 -0.05131794698536396 -0.016215545125305653 -0.01630145125091076 -0.01609776820987463 -0.044590361416339874 -0.04463691636919975 -0.04420582763850689 -0.04413873702287674 -0.04709842801094055 -0.047225793823599815 -0.047010743990540504 -0.05189202353358269 -0.051897039636969566 -0.05194588005542755 -0.010177576448768377 -0.010181360878050327 -0.01038770331069827 -0.013773408252745865 -0.013968500308692455 -0.01403383584693074 -0.03131750971078873 -0.03120235912501812 -0.031417788937687874 -0.03160080127418041 -0.05089566111564636 -0.050794944167137146 -0.05094604566693306 -0.051311105489730835 -0.05143222585320473 -0.051351021975278854 -0.05127909779548645 -0.05140021815896034 -0.05113833211362362 -0.05118752829730511 -0.0424022451043129 -0.042122116312384605 -0.04222244583070278 -0.051819467917084694 -0.051810912787914276 -0.05175674147903919 -0.05183378420770168 -0.051766399294137955 -0.05188795551657677 -0.014307684265077114 -0.0145774194970727 -0.014590458013117315 -0.04900049977004528 -0.04883498698472977 -0.028033318929374218 -0.02786382380872965 -0.02812790498137474 -0.027482237666845325 -0.027633009478449825 -0.02734600938856602 -0.027904662303626537 -0.027768434025347233 -0.018231776542961594 -0.01840419601649046 -0.018135739490389824 -0.0187847139313817 -0.018624073825776577 -0.01836256217211485 -0.0509002897888422 -0.05084556899964809 -0.05100741609930992 -0.05094986967742443 -0.05109643191099167 -0.05098416469991207 -0.051385801285505295 -0.05147016420960426 -0.0515066422522068 -0.0514366440474987 -0.05155748501420021 -0.05131925828754902 -0.0125954425893724 -0.012768018525093796 -0.012471904046833515 -0.030857579782605175 -0.031195512041449547 -0.03103453293442726 -0.03053908329457045 -0.03042584378272295 -0.030861794948577884 -0.030704277567565445 -0.03175844065845013 -0.03151613473892212 -0.031614771112799644 -0.0425842460244894 -0.04274485073983669 -0.04281975701451302 -0.04705177620053291 -0.04699183441698551 -0.04719805158674717 -0.01344854012131691 -0.013475779909640554 -0.01401790138334036 -0.01389344455674291 -0.013749063014984134 -0.01351488241925836 -0.01192236877977848 -0.011693651787936684 -0.014246139209717509 -0.014490316156297919 -0.01450172439217567 -0.049272457137703896 -0.049338726326823235 -0.01288812281563878 -0.013159852940589186 -0.012860856018960476 -0.01264640036970377 -0.012395027559250595 -0.012452302034944296 -0.04426269605755806 -0.04411059245467186 -0.04435058310627937 -0.0444458182901144 -0.04469378478825092 -0.028870385140180588 -0.029062914662063122 -0.028875385411083695 -0.01739659998565912 -0.0171830328181386 -0.01739146001636982 -0.048763301223516464 -0.0486262571066618 -0.051743095740675926 -0.051671041175723076 -0.05153633467853069 -0.05162069760262966 -0.05172722227871418 -0.05169752985239029 -0.05177704989910126 -0.05169997923076153 -0.051608731970191 -0.05173788405954838 -0.05163834989070892 -0.05159639194607735 -0.05158810503780842 -0.04921930842101574 -0.049393657594919205 -0.04908629320561886 -0.04903136193752289 -0.03980467654764652 -0.03978089615702629 -0.03954135812819004 -0.035136427730321884 -0.03502799943089485 -0.03490690514445305 -0.04017050378024578 -0.03994239121675491 -0.01835763081908226 -0.0181626183912158 -0.01843422371894121 -0.018778977915644646 -0.018583965487778187 -0.019063055515289307 -0.01891331374645233 -0.01672311034053564 -0.01658094022423029 -0.016865326091647148 -0.027938416227698326 -0.02812691405415535 -0.027838336303830147 -0.027498744428157806 -0.02768724225461483 -0.02721457090228796 -0.027365664951503277 -0.027114801108837124 -0.02726005855947733 -0.027017842046916485 -0.04395430348813534 -0.0438047219067812 -0.04404889792203903 -0.043866416439414024 -0.047170570120215416 -0.04728830233216286 -0.04742281697690487 -0.047449491918087006 -0.04732916317880154 -0.04718475602567196 -0.04704865626990795 -0.047547027468681335 -0.0483892299234867 -0.04827587492763996 -0.048148004338145256 -0.048121847212314606 -0.048235706984996796 -0.04837521910667419 -0.04849927872419357 -0.048025164753198624 -0.01056454936042428 -0.01080924179404974 -0.01056732377037406 -0.010098874103277922 -0.010325680021196604 -0.010101922787725925 -0.029248579405248165 -0.029253579676151276 -0.016993405297398564 -0.016988265328109264 -0.04465443268418312 -0.04445856437087059 -0.044697247445583344 -0.04863591119647026 -0.04869377613067627 -0.048593852669000626 -0.04845264181494713 -0.04747641831636429 -0.04738873429596424 -0.04744867607951164 -0.04769625701010227 -0.04790103994309902 -0.04784414172172546 -0.047533316537737846 -0.04767489805817604 -0.04748421534895897 -0.04654591158032417 -0.04665859043598175 -0.04676403850317001 -0.04632789082825184 -0.04611465521156788 -0.04622722789645195 -0.046367062255740166 -0.04631821438670158 -0.046545976772904396 -0.04537782818078995 -0.0450926274061203 -0.04522806033492088 -0.03928825445473194 -0.03941376507282257 -0.03958203084766865 -0.0389708187431097 -0.0387121606618166 -0.03886133059859276 -0.04009651578962803 -0.03995051980018616 -0.03985353745520115 -0.04042149521410465 -0.04047154821455479 -0.040337007492780685 -0.04010901041328907 -0.029847022145986557 -0.029739920981228355 -0.029610919766128063 -0.05111983232200146 -0.05126059800386429 -0.04261235147714615 -0.04272349551320076 -0.04236020892858505 -0.04254603013396263 -0.04225755110383034 -0.04229394719004631 -0.04210812598466873 -0.05160541459918022 -0.05167412385344505 -0.051709555089473724 -0.051449138671159744 -0.05152106285095215 -0.01649373583495617 -0.01637595891952515 -0.016390686854720116 -0.016198402270674706 -0.01665333099663258 -0.016475774347782135 -0.029775558039546013 -0.029934372752904892 -0.044316789135336876 -0.044167207553982735 -0.045006414875388145 -0.04499026946723461 -0.04477562755346298 -0.04524062760174274 -0.04115385003387928 -0.04096770100295544 -0.0441150888800621 -0.044361451640725136 -0.04425501637160778 -0.044325968250632286 -0.0440619383007288 -0.044166382402181625 -0.04448132775723934 -0.04462125524878502 -0.04458577185869216 -0.025929955765604973 -0.025659970939159393 -0.025838833302259445 -0.02036169357597828 -0.02063434850424528 -0.02045371849089861 -0.028352675028145313 -0.028183179907500744 -0.03028764110058546 -0.030161457136273384 -0.02985992841422558 -0.030019549652934074 -0.029578329995274544 -0.029720237478613853 -0.017907080240547654 -0.01807949971407652 -0.012798701878637075 -0.01284912275150418 -0.013082165271043774 -0.012577392626553776 -0.012343733105808496 -0.01235546637326479 -0.018301387317478657 -0.01853375229984522 -0.018592651933431625 -0.04305273853242397 -0.04330216906964779 -0.04322032816708087 -0.042939599603414536 -0.04299180768430233 -0.011048532091081139 -0.0111212688498199 -0.01089096860960126 -0.011313725262880325 -0.01156260073184967 -0.011597493663430216 -0.011156161781400446 -0.0499839223921299 -0.050154561176896095 -0.050100745633244514 -0.05115080811083317 -0.05109608732163906 -0.014056986663490534 -0.014228194020688534 -0.01400386216118932 -0.04596986994147301 -0.04586920700967312 -0.045483408495783806 -0.04562075436115265 -0.04537974111735821 -0.04561884142458439 -0.04576362669467926 -0.04592917859554291 -0.04583599790930748 -0.045536208897829056 -0.045666396617889404 -0.04531592316925526 -0.04548552446067333 -0.044259993359446526 -0.04429757967591286 -0.04447268508374691 -0.04382854327559471 -0.04399210214614868 -0.04373575747013092 -0.01136920461431146 -0.011617204640060665 -0.011512145400047306 -0.0110962362959981 -0.011201295536011461 -0.011417299509048465 -0.01166529953479767 -0.011322157457470894 -0.01116900332272053 -0.05127480626106262 -0.05118355341255665 -0.015813928097486496 -0.015739907510578632 -0.0160035053268075 -0.015402061864733696 -0.015591639094054699 -0.04630463197827339 -0.04637278616428375 -0.04614857956767082 -0.045924270525574684 -0.045984433963894844 -0.04615657031536102 -0.0455455519258976 -0.04550616629421711 -0.04915948957204819 -0.04911297187209129 -0.013148189522325996 -0.013249363284558061 -0.04455949179828167 -0.044543346390128136 -0.04435808025300503 -0.044107867404818535 -0.04409278742969036 -0.04387344419956207 -0.014537855982780455 -0.014535296242684126 -0.014986801892518994 -0.014805031474679708 -0.015041963662952185 -0.05131008103489876 -0.05137777701020241 -0.051498621702194214 -0.051534052938222885 -0.05133901350200176 -0.05140623822808266 -0.0514595340937376 -0.01540325954556465 -0.01522356830537319 -0.01547636091709137 -0.014948184136301276 -0.009541091043502092 -0.009752600453794003 -0.009802269283682108 -0.045147091150283813 -0.04536272585391998 -0.04548935405910015 -0.045687345787882805 -0.035795437172055244 -0.035833440721035004 -0.036072513088583946 -0.03125622868537903 -0.03143318183720112 -0.009507548529654741 -0.009744358714669943 -0.009741967543959618 -0.019183345139026642 -0.01889917254447937 -0.018728158436715603 -0.018606198020279408 -0.018498562276363373 -0.01897504087537527 -0.019114227034151554 -0.018928470090031624 -0.01923618745058775 -0.01883574854582548 -0.018696513026952744 -0.018302503041923046 -0.018359269946813583 -0.01813384797424078 -0.01866721734404564 -0.029472466558218002 -0.02963773999363184 -0.02934757713228464 -0.029013896360993385 -0.029179169796407223 -0.026598908938467506 -0.026717426255345345 -0.02645621169358492 -0.016995491459965706 -0.01717792358249426 -0.016995460726320744 -0.017361494712531567 -0.017361463978886604 -0.02911212481558323 -0.028946797363460064 -0.029233242385089394 -0.01450301753357053 -0.01472187880426645 -0.01452228194102645 -0.01427538134157658 -0.014805055689066648 -0.014993536751717329 -0.01504867430776358 -0.012018974870443344 -0.011903806123882529 -0.012148738373070955 -0.013369810301810505 -0.013509109150618315 -0.01364524196833372 -0.01306261727586389 -0.012939078733325005 -0.013128728140145545 -0.013299788348376754 -0.050141362473368645 -0.050068773329257965 -0.05023102648556232 -0.04983465559780598 -0.049780840054154396 -0.0497137289494276 -0.04991681128740311 -0.04955887235701084 -0.051676373928785324 -0.05167747661471367 -0.05154832452535629 -0.05148201063275337 -0.05144288390874863 -0.045379964634776115 -0.045483922585844994 -0.04523501172661781 -0.04549774155020714 -0.04585465043783188 -0.04579753056168556 -0.046023305505514145 -0.019288881681859493 -0.019009454175829887 -0.01913981232792139 -0.018211668357253075 -0.018077395856380463 -0.017951752990484238 -0.018483273684978485 -0.018744810484349728 -0.018598848022520542 -0.02807748317718506 -0.02818524558097124 -0.02833475638180971 -0.027788905426859856 -0.027531951665878296 -0.02767101861536503 -0.025899012573063374 -0.026171676814556122 -0.026033555157482624 -0.02699137292802334 -0.02726705651730299 -0.027138381265103817 -0.03972339443862438 -0.03957739844918251 -0.039283622056245804 -0.03906717151403427 -0.03923080489039421 -0.037632763385772705 -0.03739063814282417 -0.037514828145504 -0.04609498009085655 -0.046235885471105576 -0.046056970953941345 -0.04584953188896179 -0.045745864510536194 -0.020393305458128452 -0.02011801116168499 -0.02025740686804056 -0.04513823427259922 -0.04527558013796806 -0.044963594526052475 -0.044767726212739944 -0.04488760232925415 -0.04499176330864429 -0.03689815104007721 -0.03715401142835618 -0.037016842514276505 -0.03664206340909004 -0.03649960085749626 -0.04799133352935314 -0.04813921824097633 -0.04836210608482361 -0.04827181249856949 -0.04841664992272853 -0.04854924418032169 -0.02489568013697863 -0.025142663158476353 -0.025027604773640633 -0.024695830419659615 -0.02443491853773594 -0.024519709870219234 -0.021404165774583817 -0.02115562930703163 -0.021271398290991787 -0.021605211310088634 -0.02186731994152069 -0.021782043389976025 -0.01158978138118982 -0.011353227775543925 -0.011516603175550696 -0.011687011457979676 -0.01145045785233378 -0.01310065807774663 -0.013236790895462034 -0.012806059326976534 -0.012695778161287304 -0.012534198816865679 -0.04015369527041912 -0.04034746065735817 -0.03717365674674511 -0.03735022433102131 -0.03746833652257919 -0.01988566294312477 -0.020133303478360176 -0.020069628953933716 -0.028690013103187084 -0.02881113067269325 -0.028618601150810715 -0.030317582190036774 -0.030210648663342 -0.0306455260142684 -0.03077205177396536 -0.05088913068175316 -0.05076267942786217 -0.050733327865600586 -0.0509566031396389 -0.05107258819043636 -0.051029447466135025 -0.051000095903873444 -0.03488371521234512 -0.03508658893406391 -0.03497846983373165 -0.03472522087395191 -0.035366980358958244 -0.035210682079195976 -0.03544069826602936 -0.03455387242138386 -0.03445911779999733 -0.03535262495279312 -0.03506333753466606 -0.014079330954700708 -0.01406006654724479 -0.01360919326543808 -0.013686658814549444 -0.013431835919618605 -0.012785735074430704 -0.012489620596170425 -0.05032758787274361 -0.05034387670457363 -0.04570424370467663 -0.04545827582478523 -0.04587638005614281 -0.04543870501220226 -0.045601749792695045 -0.04538410156965256 -0.01999501883983612 -0.01985912024974823 -0.019447325728833675 -0.01961593609303236 -0.019327133893966675 -0.01957768388092518 -0.019700676202774048 -0.025780663825571537 -0.02562762517482042 -0.025884095579385757 -0.025267465971410275 -0.02539939060807228 -0.02564254216849804 -0.025517739355564117 -0.02051262278109789 -0.02066703233867884 -0.02040831930935383 -0.02102986630052328 -0.02089709881693125 -0.02065201848745346 -0.02077778149396181 -0.018929029814898968 -0.018779960460960865 -0.02206322457641363 -0.02192461583763361 -0.022182760760188103 -0.0215467382222414 -0.0216932138428092 -0.02143487241119146 -0.021662507206201553 -0.026293331757187843 -0.026427874341607094 -0.026834788732230663 -0.026668312959372997 -0.026953572407364845 -0.026706113480031494 -0.02658445853739977 -0.03824337385594845 -0.03810996375977993 -0.03835434466600418 -0.03775378316640854 -0.03789287433028221 -0.03764766454696655 -0.037877973169088364 -0.037988943979144096 -0.024239581078290936 -0.02437779400497675 -0.024120585061609745 -0.024753764271736145 -0.024608079344034195 -0.0248650535941124 -0.024638705886900425 -0.02734631486237049 -0.02749332319945097 -0.036769868806004524 -0.03691715560853481 -0.037262583151459694 -0.03714464791119099 -0.036888787522912025 -0.013557943049818274 -0.013349334243685005 -0.01355290692299604 -0.013812765944749113 -0.014008816331624985 -0.013968292623758314 -0.03287051245570183 -0.03298539109528065 -0.033261144533753395 -0.04908640310168266 -0.04919448308646679 -0.04911615327000618 -0.04930220730602741 -0.04889277555048466 -0.05091086961328983 -0.05104605108499527 -0.05102432705461979 -0.050749074667692184 -0.05077497474849224 -0.05063490383327007 -0.050770798698067665 -0.05039298161864281 -0.05021502822637558 -0.05023641139268875 -0.05054193176329136 -0.050537584349513054 -0.050665151327848434 -0.05052054859697819 -0.05048852972686291 -0.050440194085240364 -0.050319720059633255 -0.05020289681851864 -0.01582514913752675 -0.015677090268582106 -0.015392611268907785 -0.015525010414421558 -0.01592252030968666 -0.01575940568000078 -0.01562873367220163 -0.01566826971247792 -0.01594872772693634 -0.015481156762689349 -0.015357578173279759 -0.015793915372341875 -0.015662882011383775 -0.015378403011709455 -0.015637451317161325 -0.01537000434473157 -0.015491181053221226 -0.047912221401929855 -0.04814789816737175 -0.048074159771203995 -0.04823102802038193 -0.04839296638965607 -0.016698719933629036 -0.016862827353179455 -0.016559048555791378 -0.016224066726863384 -0.016388174146413803 -0.016093394719064236 -0.016250274144113064 -0.03043726645410061 -0.030589008703827858 -0.03088325262069702 -0.03073219582438469 -0.04766479507088661 -0.047422900795936584 -0.0474974662065506 -0.047332050278782845 -0.04716472141444683 -0.03280397504568099 -0.03268272243440151 -0.03238091617822647 -0.03271262906491756 -0.033016130328178406 -0.03301506675779819 -0.03274769149720669 -0.03316737525165081 -0.03329019621014595 -0.05035248398780823 -0.05041525885462761 -0.0304471543058753 -0.030591584742069244 -0.030885828658938404 -0.030615645460784435 -0.030901623889803886 -0.030294588766992092 -0.030453448183834553 -0.03058081865310669 -0.03058101236820221 -0.030278213322162628 -0.03073031920939684 -0.03088937234133482 -0.047144245356321335 -0.04739649221301079 -0.04667183570563793 -0.04689781740307808 -0.046904174610972404 -0.046644752845168114 -0.04701236449182034 -0.04713788814842701 -0.03291509859263896 -0.03278098814189434 -0.032651349902153015 -0.03265900537371635 -0.03293043002486228 -0.03250866010785103 -0.03238220512866974 -0.016847391612827774 -0.016987020149827 -0.017142127268016335 -0.016537127085030075 -0.016398945823311806 -0.0165436128154397 -0.016676802188158035 -0.01680056378245354 -0.017274816520512104 -0.017429877072572705 -0.01712669525295496 -0.0168319595977664 -0.031177331693470478 -0.03132966626435518 -0.03148055821657181 -0.03147934563457966 -0.031193126924335957 -0.031036720611155033 -0.02939119189977646 -0.029271750710904598 -0.02912000846117735 -0.029694542288780216 -0.02983870077878237 -0.04839724861085415 -0.048156023025512695 -0.033548057079315186 -0.03368506766855717 -0.03344622068107128 -0.0331769734621048 -0.03331398405134678 -0.03304733522236347 -0.03319230489432812 -0.046309635043144226 -0.046369798481464386 -0.04882990010082722 -0.04862036928534508 -0.048618096858263016 -0.04884219169616699 -0.04849824495613575 -0.04839952103793621 -0.029538005590438843 -0.029376150108873844 -0.029674706049263477 -0.03000188991427422 -0.029840034432709217 -0.030129260383546352 -0.029985514469444755 -0.029689747840166095 -0.04914398305118084 -0.04927144944667816 -0.049113260582089424 -0.03178075700998306 -0.03208145312964916 -0.032080164179205894 -0.03178196959197521 -0.031931087374687195 -0.03223179839551449 -0.03162963502109051 -0.0465397983789444 -0.04674949683248997 -0.04667367972433567 -0.04638408124446868 -0.013768529519438744 -0.013907828368246555 -0.014286698307842014 -0.014448115602135655 -0.01419253321364522 -0.013938477728515865 -0.014099895022809505 -0.01367589132860303 -0.012366946320980786 -0.012256665155291554 -0.011829933151602745 -0.011924779042601585 -0.011989425402134655 -0.012156677898019549 -0.0117299458943